<LesHouchesEvents version="1.0">
<herwig6header>
# Herwig6 parameters
IPROC = -1610
RMASS(1) = 0.32
RMASS(2) = 0.32
RMASS(3) = 0.5
RMASS(4) = 1.55
RMASS(5) = 4.8
RMASS(6) = 172.3
RMASS(13) = 0.75
RMASS(201) = 500
</herwig6header>
<init>
    2212  2212  5.0000000E+03  5.0000000E+03  0  0  10050  10050  -4  1
	0.0000000E+00	0.0000000E+00	0.0000000E+00	1600
</init>
<event>
    4  0  -1.5170931E+00  1.4285988E+01  0.0000000E+00  0.0000000E+00
	21	-1	0	0	501	502	0.0000000000E+00	0.0000000000E+00	8.6073012000E+01	8.6076279513E+01	7.5000000000E-01	0.000E+00	9.0
	21	-1	0	0	502	503	0.0000000000E+00	0.0000000000E+00	-3.4526463000E+02	3.4526544459E+02	7.5000000000E-01	0.000E+00	9.0
	21	1	1	2	501	503	4.9971087000E-01	-1.4277246000E+01	-1.0901178000E+01	1.7985762316E+01	7.5000000000E-01	0.000E+00	9.0
	25	1	1	2	0	0	-4.9971087000E-01	1.4277246000E+01	-2.4829044000E+02	4.1335596462E+02	3.3016802000E+02	0.000E+00	9.0
#IHPRO = 7
</event>
<event>
    3  0  1.5170931E+00  1.2646274E+02  0.0000000E+00  0.0000000E+00
	21	-1	0	0	501	502	0.0000000000E+00	0.0000000000E+00	2.1945627000E+02	2.1945755157E+02	7.5000000000E-01	0.000E+00	9.0
	21	-1	0	0	502	501	0.0000000000E+00	0.0000000000E+00	-2.5346812000E+02	2.5346922960E+02	7.5000000000E-01	0.000E+00	9.0
	25	1	1	2	0	0	0.0000000000E+00	0.0000000000E+00	-3.4011848000E+01	4.7292677399E+02	4.7170216000E+02	0.000E+00	9.0
#IHPRO = 7
</event>
<event>
    3  0  1.5170931E+00  4.7235997E+02  0.0000000E+00  0.0000000E+00
	21	-1	0	0	501	502	0.0000000000E+00	0.0000000000E+00	2.6668158000E+02	2.6668263463E+02	7.5000000000E-01	0.000E+00	9.0
	21	-1	0	0	502	501	0.0000000000E+00	0.0000000000E+00	-2.0916486000E+02	2.0916620463E+02	7.5000000000E-01	0.000E+00	9.0
	25	1	1	2	0	0	0.0000000000E+00	0.0000000000E+00	5.7516725000E+01	4.7584883620E+02	4.7235997000E+02	0.000E+00	9.0
#IHPRO = 7
</event>
<event>
    4  0  -1.5170931E+00  1.3667672E+00  0.0000000E+00  0.0000000E+00
	21	-1	0	0	501	502	0.0000000000E+00	0.0000000000E+00	7.9380446000E+01	7.9383988985E+01	7.5000000000E-01	0.000E+00	9.0
	21	-1	0	0	502	503	0.0000000000E+00	0.0000000000E+00	-1.2102423000E+02	1.2102655389E+02	7.5000000000E-01	0.000E+00	9.0
	21	1	1	2	501	503	-1.1267043000E+00	7.7368605000E-01	-2.9107931000E-01	1.5859633818E+00	7.5000000000E-01	0.000E+00	9.0
	25	1	1	2	0	0	1.1267043000E+00	-7.7368605000E-01	-4.1352702000E+01	1.9882457235E+02	1.9447184000E+02	0.000E+00	9.0
#IHPRO = 7
</event>
<event>
    3  0  1.5170931E+00  2.8695890E+02  0.0000000E+00  0.0000000E+00
	21	-1	0	0	501	502	0.0000000000E+00	0.0000000000E+00	1.2311179000E+02	1.2311407449E+02	7.5000000000E-01	0.000E+00	9.0
	21	-1	0	0	502	501	0.0000000000E+00	0.0000000000E+00	-3.0698049000E+02	3.0698140618E+02	7.5000000000E-01	0.000E+00	9.0
	25	1	1	2	0	0	0.0000000000E+00	0.0000000000E+00	-1.8386870000E+02	4.3009547807E+02	3.8881155000E+02	0.000E+00	9.0
#IHPRO = 7
</event>
<event>
    3  0  1.5170931E+00  2.6162184E+02  0.0000000E+00  0.0000000E+00
	21	-1	0	0	501	502	0.0000000000E+00	0.0000000000E+00	2.6447788000E+02	2.6447894341E+02	7.5000000000E-01	0.000E+00	9.0
	21	-1	0	0	502	501	0.0000000000E+00	0.0000000000E+00	-2.3727496000E+02	2.3727614533E+02	7.5000000000E-01	0.000E+00	9.0
	25	1	1	2	0	0	0.0000000000E+00	0.0000000000E+00	2.7202917000E+01	5.0175508293E+02	5.0101713000E+02	0.000E+00	9.0
#IHPRO = 7
</event>
<event>
    3  0  1.5170931E+00  1.5780712E+02  0.0000000E+00  0.0000000E+00
	21	-1	0	0	501	502	0.0000000000E+00	0.0000000000E+00	2.3694463000E+02	2.3694581698E+02	7.5000000000E-01	0.000E+00	9.0
	21	-1	0	0	502	501	0.0000000000E+00	0.0000000000E+00	-9.8338100000E+01	9.8340959989E+01	7.5000000000E-01	0.000E+00	9.0
	25	1	1	2	0	0	0.0000000000E+00	0.0000000000E+00	1.3860653000E+02	3.3528677634E+02	3.0529568000E+02	0.000E+00	9.0
#IHPRO = 7
</event>
<event>
    3  0  1.5170931E+00  2.9431691E+02  0.0000000E+00  0.0000000E+00
	21	-1	0	0	501	502	0.0000000000E+00	0.0000000000E+00	3.3759321000E+02	3.3759404310E+02	7.5000000000E-01	0.000E+00	9.0
	21	-1	0	0	502	501	0.0000000000E+00	0.0000000000E+00	-1.3420771000E+02	1.3420980562E+02	7.5000000000E-01	0.000E+00	9.0
	25	1	1	2	0	0	0.0000000000E+00	0.0000000000E+00	2.0338550000E+02	4.7180384881E+02	4.2571494000E+02	0.000E+00	9.0
#IHPRO = 7
</event>
<event>
    3  0  1.5170931E+00  2.5656122E+02  0.0000000E+00  0.0000000E+00
	21	-1	0	0	501	502	0.0000000000E+00	0.0000000000E+00	6.7711671000E+01	6.7715824514E+01	7.5000000000E-01	0.000E+00	9.0
	21	-1	0	0	502	501	0.0000000000E+00	0.0000000000E+00	-9.9520717000E+02	9.9520745260E+02	7.5000000000E-01	0.000E+00	9.0
	25	1	1	2	0	0	0.0000000000E+00	0.0000000000E+00	-9.2749550000E+02	1.0629232750E+03	5.1918974000E+02	0.000E+00	9.0
#IHPRO = 7
</event>
<event>
    3  0  1.5170931E+00  1.5947434E+01  0.0000000E+00  0.0000000E+00
	21	-1	0	0	501	502	0.0000000000E+00	0.0000000000E+00	2.9392697000E+02	2.9392792687E+02	7.5000000000E-01	0.000E+00	9.0
	21	-1	0	0	502	501	0.0000000000E+00	0.0000000000E+00	-5.3307752000E+00	5.3832763474E+00	7.5000000000E-01	0.000E+00	9.0
	25	1	1	2	0	0	0.0000000000E+00	0.0000000000E+00	2.8859620000E+02	2.9931120831E+02	7.9368966000E+01	0.000E+00	9.0
#IHPRO = 7
</event>
</LesHouchesEvents>
